unknown system                          
           1
     6.350160    0.000000    0.000000
     0.000000    6.350160    0.000000
     0.000000    0.000000    6.350160
   O    H 
   1   2
Direct configuration=     1
   0.00000000  0.00000000  0.00000000
   0.09166667  0.88083333  0.00000000
   0.09166667  0.11916667  0.00000000
Direct configuration=     2
   0.00022624  0.99866076  0.99993062
   0.09115289  0.87927714  0.00184340
   0.08908168  0.12390521  0.00545195
Direct configuration=     3
   0.00043460  0.99734363  0.99986053
   0.09091972  0.87748396  0.00369358
   0.08650422  0.12851635  0.01089951
Direct configuration=     4
   0.00063290  0.99606853  0.99979083
   0.09100424  0.87552359  0.00556434
   0.08376998  0.13262200  0.01631990
Direct configuration=     5
   0.00082782  0.99484881  0.99972319
   0.09140583  0.87349895  0.00747101
   0.08077270  0.13590749  0.02167148
Direct configuration=     6
   0.00102467  0.99369142  0.99965955
   0.09209288  0.87153385  0.00942829
   0.07746023  0.13813836  0.02690714
Direct configuration=     7
   0.00122743  0.99259772  0.99960203
   0.09301116  0.86975935  0.01144839
   0.07382179  0.13916023  0.03198278
Direct configuration=     8
   0.00143881  0.99156492  0.99955245
   0.09409532  0.86830019  0.01353992
   0.06987921  0.13889322  0.03686103
Direct configuration=     9
   0.00166013  0.99058688  0.99951200
   0.09527793  0.86726238  0.01570770
   0.06567833  0.13732842  0.04151644
Direct configuration=    10
   0.00189117  0.98965470  0.99948104
   0.09649727  0.86672422  0.01795367
   0.06128442  0.13452788  0.04594191
Direct configuration=    11
   0.00212995  0.98875709  0.99945847
   0.09770230  0.86673119  0.02027756
   0.05678027  0.13062989  0.05015439
Direct configuration=    12
   0.00237261  0.98787936  0.99944135
   0.09885598  0.86729262  0.02267774
   0.05226436  0.12585725  0.05420451
Direct configuration=    13
   0.00261341  0.98700380  0.99942372
   0.09993968  0.86837908  0.02515212
   0.04784668  0.12052386  0.05818840
Direct configuration=    14
   0.00284518  0.98610984  0.99939645
   0.10095513  0.86992354  0.02769900
   0.04364067  0.11502429  0.06225477
Direct configuration=    15
   0.00306015  0.98517683  0.99934736
   0.10192740  0.87182271  0.03031849
   0.03974568  0.10979288  0.06659802
Direct configuration=    16
   0.00325164  0.98418834  0.99926343
   0.10290392  0.87394489  0.03301273
   0.03622096  0.10522293  0.07142400
Direct configuration=    17
   0.00341571  0.98313866  0.99913477
   0.10395088  0.87614142  0.03578664
   0.03306230  0.10155881  0.07688591
Direct configuration=    18
   0.00355226  0.98203574  0.99895925
   0.10514186  0.87826498  0.03864567
   0.03019807  0.09882078  0.08301273
Direct configuration=    19
   0.00366461  0.98089945  0.99874458
   0.10654163  0.88019108  0.04159132
   0.02751002  0.09681667  0.08967983
Direct configuration=    20
   0.00375851  0.97975466  0.99850676
   0.10818750  0.88183784  0.04461411
   0.02486910  0.09523029  0.09664117
Direct configuration=    21
   0.00384115  0.97862427  0.99826647
   0.11007505  0.88317616  0.04768678
   0.02216450  0.09372567  0.10359295
Direct configuration=    22
   0.00392064  0.97752484  0.99804537
   0.11215435  0.88422680  0.05076039
   0.01931610  0.09201649  0.11023720
Direct configuration=    23
   0.00400553  0.97646583  0.99786375
   0.11433769  0.88504730  0.05376619
   0.01627446  0.08989280  0.11631672
Direct configuration=    24
   0.00410426  0.97545081  0.99773929
   0.11651655  0.88571287  0.05662263
   0.01301548  0.08722061  0.12162936
Direct configuration=    25
   0.00422427  0.97447924  0.99768658
   0.11857977  0.88629969  0.05924412
   0.00953173  0.08393021  0.12602921
Direct configuration=    26
   0.00437145  0.97354839  0.99771656
   0.12042792  0.88687322  0.06154908
   0.00582637  0.08000185  0.12942039
Direct configuration=    27
   0.00455014  0.97265386  0.99783654
   0.12198364  0.88748110  0.06346667
   0.00190863  0.07545866  0.13175762
Direct configuration=    28
   0.00476275  0.97179022  0.99804991
   0.12319820  0.88815012  0.06494109
   0.99778919  0.07035941  0.13304372
Direct configuration=    29
   0.00500967  0.97095153  0.99835551
   0.12405559  0.88888522  0.06593546
   0.99347643  0.06479659  0.13333426
Direct configuration=    30
   0.00528986  0.97013069  0.99874729
   0.12457205  0.88967205  0.06643291
   0.98897104  0.05889572  0.13274361
Direct configuration=    31
   0.00560106  0.96931977  0.99921346
   0.12479716  0.89047856  0.06643885
   0.98425938  0.05281615  0.13145507
Direct configuration=    32
   0.00594030  0.96850994  0.99973621
   0.12481249  0.89125787  0.06598201
   0.97930794  0.04674593  0.12972482
Direct configuration=    33
   0.00630447  0.96769214  0.00029217
   0.12472800  0.89195200  0.06511492
   0.97405676  0.04088888  0.12787347
Direct configuration=    34
   0.00669072  0.96685839  0.00085482
   0.12467434  0.89249774  0.06391282
   0.96842084  0.03543554  0.12624927
Direct configuration=    35
   0.00709598  0.96600415  0.00139916
   0.12479090  0.89283334  0.06247010
   0.96230981  0.03052028  0.12515735
Direct configuration=    36
   0.00751568  0.96513033  0.00190761
   0.12520884  0.89290695  0.06089340
   0.95566651  0.02618101  0.12477211
Direct configuration=    37
   0.00794207  0.96424376  0.00237430
   0.12602979  0.89268594  0.05929098
   0.94851262  0.02234175  0.12507848
Direct configuration=    38
   0.00836407  0.96335511  0.00280516
   0.12730555  0.89216473  0.05776043
   0.94097452  0.01883649  0.12588493
Direct configuration=    39
   0.00876888  0.96247557  0.00321386
   0.12902330  0.89137018  0.05637732
   0.93326879  0.01546163  0.12689732
Direct configuration=    40
   0.00914489  0.96161349  0.00361685
   0.13110325  0.89035973  0.05518968
   0.92566184  0.01202401  0.12780602
Direct configuration=    41
   0.00948366  0.96077356  0.00402904
   0.13341141  0.88921350  0.05422059
   0.91842222  0.00837029  0.12834860
Direct configuration=    42
   0.00978074  0.95995656  0.00446205
   0.13577860  0.88802314  0.05347381
   0.91179130  0.00439415  0.12833363
Direct configuration=    43
   0.01003505  0.95916073  0.00492391
   0.13802685  0.88687772  0.05294301
   0.90596518  0.00003311  0.12764296
Direct configuration=    44
   0.01024792  0.95838304  0.00541847
   0.13998892  0.88585469  0.05261742
   0.90108987  0.99526074  0.12622109
Direct configuration=    45
   0.01042234  0.95761964  0.00594656
   0.14152326  0.88501280  0.05248716
   0.89725933  0.99007715  0.12406600
Direct configuration=    46
   0.01056221  0.95686706  0.00650614
   0.14252470  0.88438869  0.05254484
   0.89451475  0.98450318  0.12122022
Direct configuration=    47
   0.01067263  0.95612217  0.00709192
   0.14292964  0.88399513  0.05278714
   0.89283854  0.97857578  0.11777129
Direct configuration=    48
   0.01076007  0.95538276  0.00769548
   0.14271873  0.88382166  0.05321505
   0.89214699  0.97234206  0.11385084
Direct configuration=    49
   0.01083296  0.95464776  0.00830526
   0.14192069  0.88383388  0.05383528
   0.89227768  0.96585297  0.10963929
Direct configuration=    50
   0.01090215  0.95391764  0.00890609
   0.14061250  0.88397468  0.05466025
   0.89297946  0.95915668  0.10536693
Direct configuration=    51
   0.01098093  0.95319534  0.00947979
   0.13892057  0.88416517  0.05571000
   0.89391373  0.95228544  0.10130533
Direct configuration=    52
   0.01108334  0.95248667  0.01000700
   0.13701524  0.88430830  0.05701305
   0.89468621  0.94524299  0.09773559
Direct configuration=    53
   0.01122033  0.95180036  0.01047077
   0.13509765  0.88429612  0.05860603
   0.89492145  0.93799831  0.09489237
Direct configuration=    54
   0.01139441  0.95114634  0.01086130
   0.13337419  0.88402256  0.06052941
   0.89437125  0.93049973  0.09289259
Direct configuration=    55
   0.01159660  0.95053225  0.01117931
   0.13202080  0.88340182  0.06281701
   0.89300249  0.92271161  0.09169075
Direct configuration=    56
   0.01180843  0.94995990  0.01143603
   0.13114468  0.88238827  0.06548177
   0.89100220  0.91465051  0.09109444
Direct configuration=    57
   0.01200848  0.94942356  0.01164981
   0.13075846  0.88099079  0.06850225
   0.88869976  0.90639933  0.09083136
Direct configuration=    58
   0.01217899  0.94891078  0.01184187
   0.13078132  0.87927394  0.07181652
   0.88646018  0.89809181  0.09062388
Direct configuration=    59
   0.01230919  0.94840485  0.01203309
   0.13106344  0.87734666  0.07532606
   0.88460704  0.88988667  0.09023606
Direct configuration=    60
   0.01239490  0.94788756  0.01224205
   0.13142550  0.87534052  0.07891022
   0.88338490  0.88194293  0.08949285
Direct configuration=    61
   0.01243709  0.94734150  0.01248403
   0.13169348  0.87339056  0.08244186
   0.88295562  0.87440363  0.08827614
Direct configuration=    62
   0.01243890  0.94675142  0.01277096
   0.13172432  0.87161968  0.08580239
   0.88340991  0.86739111  0.08651345
Direct configuration=    63
   0.01240512  0.94610493  0.01311121
   0.13141627  0.87013032  0.08889124
   0.88477478  0.86100082  0.08417087
Direct configuration=    64
   0.01234068  0.94539292  0.01350988
   0.13071386  0.86900079  0.09163137
   0.88702465  0.85530015  0.08124397
Direct configuration=    65
   0.01225096  0.94461005  0.01396881
   0.12960724  0.86828428  0.09397290
   0.89008343  0.85032397  0.07775400
Direct configuration=    66
   0.01214175  0.94375461  0.01448655
   0.12813122  0.86800896  0.09589451
   0.89382571  0.84606693  0.07374445
Direct configuration=    67
   0.01201910  0.94282983  0.01505840
   0.12636411  0.86817831  0.09740696
   0.89807329  0.84247549  0.06927931
Direct configuration=    68
   0.01189031  0.94184394  0.01567646
   0.12442373  0.86877221  0.09855420
   0.90259448  0.83943664  0.06444076
Direct configuration=    69
   0.01176334  0.94081104  0.01632977
   0.12246652  0.86974645  0.09941610
   0.90710555  0.83676747  0.05932382
Direct configuration=    70
   0.01164663  0.93975096  0.01700518
   0.12067733  0.87103630  0.10010622
   0.91128665  0.83421714  0.05402503
Direct configuration=    71
   0.01154753  0.93868700  0.01768886
   0.11925438  0.87256110  0.10076495
   0.91482165  0.83149224  0.04862451
Direct configuration=    72
   0.01147001  0.93764203  0.01836851
   0.11838467  0.87423413  0.10154415
   0.91746125  0.82831584  0.04316580
Direct configuration=    73
   0.01141211  0.93663206  0.01903555
   0.11821003  0.87597557  0.10258201
   0.91909447  0.82451207  0.03764730
Direct configuration=    74
   0.01136570  0.93566147  0.01968610
   0.11879443  0.87772567  0.10397406
   0.91978717  0.82007176  0.03203595
Direct configuration=    75
   0.01131888  0.93472190  0.02032048
   0.12010316  0.87945392  0.10574937
   0.91976477  0.81515790  0.02629796
Direct configuration=    76
   0.01126004  0.93379605  0.02094176
   0.12200479  0.88115823  0.10786379
   0.91934503  0.81005006  0.02042914
Direct configuration=    77
   0.01118111  0.93286317  0.02155424
   0.12429567  0.88285427  0.11021160
   0.91885996  0.80506328  0.01446592
Direct configuration=    78
   0.01107837  0.93190405  0.02216230
   0.12673812  0.88456208  0.11265137
   0.91860414  0.80048610  0.00848013
Direct configuration=    79
   0.01095217  0.93090342  0.02276967
   0.12909487  0.88629487  0.11503134
   0.91880998  0.79654762  0.00256422
Direct configuration=    80
   0.01080509  0.92985123  0.02337890
   0.13115667  0.88805302  0.11721120
   0.91964415  0.79341049  0.99681628
Direct configuration=    81
   0.01064091  0.92874201  0.02399140
   0.13275802  0.88982189  0.11907550
   0.92121449  0.79117355  0.99133210
Direct configuration=    82
   0.01046319  0.92757507  0.02460726
   0.13378300  0.89157439  0.12053932
   0.92357679  0.78987789  0.98619508
Direct configuration=    83
   0.01027545  0.92635334  0.02522571
   0.13416545  0.89327450  0.12154988
   0.92674211  0.78951059  0.98147116
Direct configuration=    84
   0.01008046  0.92508353  0.02584525
   0.13389009  0.89488019  0.12208810
   0.93068045  0.79000588  0.97720281
Direct configuration=    85
   0.00988021  0.92377621  0.02646421
   0.13299367  0.89634628  0.12217075
   0.93532194  0.79124032  0.97340110
Direct configuration=    86
   0.00967617  0.92244608  0.02708112
   0.13156529  0.89762769  0.12185205
   0.94055630  0.79302572  0.97003547
Direct configuration=    87
   0.00946871  0.92111207  0.02769528
   0.12974864  0.89868109  0.12122613
   0.94623519  0.79509984  0.96702224
Direct configuration=    88
   0.00925662  0.91979760  0.02830748
   0.12774015  0.89946814  0.12042719
   0.95218162  0.79712892  0.96421578
Direct configuration=    89
   0.00903629  0.91852835  0.02891980
   0.12578122  0.89995690  0.11962443
   0.95821159  0.79873354  0.96141332
Direct configuration=    90
   0.00880072  0.91732837  0.02953490
   0.12413559  0.90012417  0.11900558
   0.96417330  0.79955246  0.95838427
Direct configuration=    91
   0.00853924  0.91621394  0.03015383
   0.12304965  0.89995740  0.11874686
   0.96999046  0.79933984  0.95493401
Direct configuration=    92
   0.00823985  0.91518757  0.03077396
   0.12270132  0.89945784  0.11897295
   0.97567721  0.79805339  0.95097884
Direct configuration=    93
   0.00789332  0.91423689  0.03138877
   0.12315419  0.89864210  0.11972183
   0.98131696  0.79587377  0.94658532
Direct configuration=    94
   0.00749750  0.91333874  0.03198993
   0.12433904  0.89754131  0.12093105
   0.98701327  0.79313959  0.94194907
Direct configuration=    95
   0.00705882  0.91246579  0.03257014
   0.12607516  0.89619914  0.12245641
   0.99284351  0.79024380  0.93733106
Direct configuration=    96
   0.00659063  0.91159204  0.03312476
   0.12811695  0.89466827  0.12411036
   0.99884014  0.78755060  0.93299556
Direct configuration=    97
   0.00610981  0.91069571  0.03365141
   0.13020582  0.89300565  0.12570243
   0.00498999  0.78535277  0.92916822
Direct configuration=    98
   0.00563408  0.90975993  0.03414968
   0.13210665  0.89126869  0.12706758
   0.01124624  0.78386176  0.92601948
Direct configuration=    99
   0.00517967  0.90877245  0.03462022
   0.13362934  0.88951218  0.12808391
   0.01754049  0.78321538  0.92366522
Direct configuration=   100
   0.00476019  0.90772542  0.03506349
   0.13463504  0.88778693  0.12867550
   0.02379110  0.78349112  0.92217099
Direct configuration=   101
   0.00438658  0.90661448  0.03548035
   0.13503556  0.88613974  0.12881035
   0.02991294  0.78471263  0.92155390
Direct configuration=   102
   0.00406622  0.90543847  0.03587187
   0.13479377  0.88461191  0.12850203
   0.03582208  0.78685549  0.92178495
Direct configuration=   103
   0.00380295  0.90419958  0.03623922
   0.13392313  0.88323893  0.12780847
   0.04144286  0.78984994  0.92278645
Direct configuration=   104
   0.00359661  0.90290326  0.03658432
   0.13248679  0.88204968  0.12683105
   0.04671661  0.79357998  0.92442688
Direct configuration=   105
   0.00344210  0.90155861  0.03691017
   0.13059898  0.88106514  0.12571599
   0.05161144  0.79787977  0.92651232
Direct configuration=   106
   0.00332905  0.90017811  0.03722117
   0.12842288  0.88029850  0.12465265
   0.05613094  0.80253560  0.92878366
Direct configuration=   107
   0.00324150  0.89877718  0.03752323
   0.12616309  0.87975439  0.12386734
   0.06032567  0.80729579  0.93091919
Direct configuration=   108
   0.00315928  0.89737231  0.03782355
   0.12404365  0.87942899  0.12360336
   0.06429446  0.81189948  0.93256187
Direct configuration=   109
   0.00306151  0.89597810  0.03812901
   0.12227153  0.87931269  0.12408861
   0.06816646  0.81612223  0.93337310
Direct configuration=   110
   0.00293182  0.89460356  0.03844432
   0.12098535  0.87939402  0.12548949
   0.07205954  0.81983206  0.93311269
Direct configuration=   111
   0.00276501  0.89324965  0.03876981
   0.12021687  0.87966175  0.12786839
   0.07603136  0.82302359  0.93171149
Direct configuration=   112
   0.00256827  0.89191029  0.03910174
   0.11987932  0.88010573  0.13116462
   0.08005061  0.82580628  0.92929172
Direct configuration=   113
   0.00235994  0.89057524  0.03943352
   0.11979062  0.88071417  0.13520511
   0.08400464  0.82835564  0.92612975
Direct configuration=   114
   0.00216414  0.88923401  0.03975852
   0.11972229  0.88147078  0.13974341
   0.08773821  0.83085502  0.92257865
Direct configuration=   115
   0.00200464  0.88787866  0.04007149
   0.11944998  0.88235330  0.14450629
   0.09109418  0.83345531  0.91899535
Direct configuration=   116
   0.00190174  0.88650442  0.04036922
   0.11878426  0.88333414  0.14922891
   0.09393890  0.83626050  0.91569638
Direct configuration=   117
   0.00187003  0.88510958  0.04065027
   0.11758788  0.88438236  0.15368071
   0.09617512  0.83932867  0.91293542
Direct configuration=   118
   0.00191843  0.88369483  0.04091455
   0.11577689  0.88546590  0.15767451
   0.09774372  0.84268094  0.91090201
Direct configuration=   119
   0.00205051  0.88226255  0.04116270
   0.11331768  0.88655435  0.16107084
   0.09862168  0.84631016  0.90972345
Direct configuration=   120
   0.00226478  0.88081602  0.04139615
   0.11022231  0.88762067  0.16378046
   0.09882159  0.85018835  0.90946704
Direct configuration=   121
   0.00255502  0.87935918  0.04161668
   0.10654291  0.88864289  0.16576472
   0.09838916  0.85427443  0.91014333
Direct configuration=   122
   0.00291047  0.87789604  0.04182651
   0.10236953  0.88960700  0.16704002
   0.09740816  0.85851905  0.91169975
Direct configuration=   123
   0.00331548  0.87643005  0.04202868
   0.09782567  0.89050908  0.16768084
   0.09600380  0.86286937  0.91401428
Direct configuration=   124
   0.00374944  0.87496370  0.04222699
   0.09306727  0.89135841  0.16782727
   0.09434991  0.86727711  0.91688692
Direct configuration=   125
   0.00418696  0.87349757  0.04242620
   0.08827658  0.89218021  0.16768465
   0.09267005  0.87170863  0.92003629
Direct configuration=   126
   0.00459942  0.87202950  0.04263174
   0.08364858  0.89301713  0.16751378
   0.09122790  0.87615598  0.92311474
Direct configuration=   127
   0.00495806  0.87055414  0.04284846
   0.07936996  0.89392712  0.16760452
   0.09029699  0.88064624  0.92575448
Direct configuration=   128
   0.00523949  0.86906374  0.04307849
   0.07558835  0.89497507  0.16822158
   0.09010107  0.88524058  0.92765616
Direct configuration=   129
   0.00543229  0.86755023  0.04331937
   0.07238238  0.89621827  0.16953827
   0.09074615  0.89001124  0.92868630
Direct configuration=   130
   0.00553992  0.86600861  0.04356396
   0.06974608  0.89768937  0.17158521
   0.09218241  0.89500479  0.92892719
Direct configuration=   131
   0.00557938  0.86443951  0.04380330
   0.06759620  0.89938477  0.17423769
   0.09422038  0.90021389  0.92864661
Direct configuration=   132
   0.00557574  0.86284961  0.04402992
   0.06580120  0.90126386  0.17725395
   0.09659266  0.90557189  0.92820434
Direct configuration=   133
   0.00555547  0.86124998  0.04424007
   0.06421441  0.90325884  0.18033999
   0.09902039  0.91097010  0.92795608
Direct configuration=   134
   0.00554250  0.85965372  0.04443337
   0.06270050  0.90528779  0.18320845
   0.10125688  0.91628036  0.92819449
Direct configuration=   135
   0.00555613  0.85807406  0.04461217
   0.06114754  0.90726611  0.18561621
   0.10310629  0.92137495  0.92912768
Direct configuration=   136
   0.00561069  0.85652331  0.04477977
   0.05947014  0.90911485  0.18738217
   0.10442404  0.92613718  0.93088282
Direct configuration=   137
   0.00571613  0.85501217  0.04493995
   0.05760690  0.91076447  0.18838906
   0.10511157  0.93046652  0.93351632
Direct configuration=   138
   0.00587848  0.85354913  0.04509628
   0.05551897  0.91215874  0.18858653
   0.10511444  0.93428457  0.93702221
Direct configuration=   139
   0.00609997  0.85214007  0.04525153
   0.05318505  0.91325562  0.18798549
   0.10441579  0.93753616  0.94134223
Direct configuration=   140
   0.00637958  0.85078816  0.04540789
   0.05059977  0.91403107  0.18665927
   0.10303861  0.94019605  0.94636717
Direct configuration=   141
   0.00671281  0.84949275  0.04556678
   0.04776999  0.91448066  0.18474412
   0.10104702  0.94227621  0.95193912
Direct configuration=   142
   0.00709174  0.84824891  0.04572873
   0.04471295  0.91462372  0.18244155
   0.09855150  0.94383687  0.95784974
Direct configuration=   143
   0.00750491  0.84704645  0.04589326
   0.04145233  0.91450467  0.18001548
   0.09571136  0.94499636  0.96384231
Direct configuration=   144
   0.00793808  0.84586983  0.04605915
   0.03801262  0.91419087  0.17777889
   0.09273073  0.94593603  0.96962376
Direct configuration=   145
   0.00837554  0.84469903  0.04622466
   0.03441121  0.91376468  0.17606764
   0.08984416  0.94689394  0.97488612
Direct configuration=   146
   0.00880305  0.84351323  0.04638816
   0.03064959  0.91330194  0.17518521
   0.08727729  0.94812646  0.97935154
Direct configuration=   147
   0.00921125  0.84229640  0.04654888
   0.02671029  0.91284739  0.17534177
   0.08519867  0.94984762  0.98282282
Direct configuration=   148
   0.00959816  0.84104313  0.04670773
   0.02256075  0.91239064  0.17659668
   0.08367222  0.95215496  0.98522605
Direct configuration=   149
   0.00996901  0.83976143  0.04686790
   0.01816797  0.91186121  0.17884121
   0.08264628  0.95499061  0.98661857
Direct configuration=   150
   0.01033376  0.83847083  0.04703478
   0.01351485  0.91114469  0.18182806
   0.08197999  0.95815750  0.98716119
Direct configuration=   151
   0.01070310  0.83719647  0.04721531
   0.00861032  0.91011188  0.18523333
   0.08149398  0.96138277  0.98706695
Direct configuration=   152
   0.01108578  0.83596356  0.04741686
   0.00349078  0.90864548  0.18871717
   0.08101290  0.96438044  0.98655766
Direct configuration=   153
   0.01148714  0.83479325  0.04764616
   0.99821385  0.90665655  0.19196852
   0.08039052  0.96689702  0.98583546
Direct configuration=   154
   0.01190955  0.83370134  0.04790873
   0.99285201  0.90409230  0.19472925
   0.07951939  0.96873496  0.98507140
Direct configuration=   155
   0.01235251  0.83269730  0.04820831
   0.98748225  0.90093333  0.19680272
   0.07832991  0.96975818  0.98440098
Direct configuration=   156
   0.01281367  0.83178538  0.04854713
   0.98217995  0.89719058  0.19805227
   0.07678476  0.96988981  0.98392605
Direct configuration=   157
   0.01328932  0.83096455  0.04892580
   0.97701361  0.89290072  0.19840030
   0.07487636  0.96911134  0.98371492
Direct configuration=   158
   0.01377462  0.83022839  0.04934330
   0.97203979  0.88812252  0.19782507
   0.07262308  0.96746239  0.98380398
Direct configuration=   159
   0.01426457  0.82956612  0.04979737
   0.96729797  0.88293467  0.19636011
   0.07006768  0.96504369  0.98419638
Direct configuration=   160
   0.01475379  0.82896103  0.05028451
   0.96280365  0.87743093  0.19409813
   0.06727832  0.96202547  0.98485496
Direct configuration=   161
   0.01523756  0.82839103  0.05080009
   0.95854048  0.87171864  0.19119377
   0.06434759  0.95865475  0.98569931
Direct configuration=   162
   0.01571206  0.82782871  0.05133873
   0.95445470  0.86591252  0.18785785
   0.06138781  0.95525358  0.98660434
Direct configuration=   163
   0.01617563  0.82724311  0.05189443
   0.95045121  0.86012686  0.18435050
   0.05852094  0.95220537  0.98740669
Direct configuration=   164
   0.01662968  0.82660314  0.05246071
   0.94639824  0.85446522  0.18095355
   0.05585622  0.94990436  0.98792924
Direct configuration=   165
   0.01707932  0.82588382  0.05303061
   0.94214545  0.84900862  0.17792379
   0.05346023  0.94867118  0.98802730
Direct configuration=   166
   0.01753282  0.82507245  0.05359668
   0.93756318  0.84380714  0.17543301
   0.05133112  0.94865382  0.98764365
Direct configuration=   167
   0.01799892  0.82417244  0.05415275
   0.93258258  0.83888268  0.17352451
   0.04939687  0.94978249  0.98683683
Direct configuration=   168
   0.01848386  0.82319992  0.05469467
   0.92722389  0.83423615  0.17210276
   0.04753961  0.95179580  0.98576620
Direct configuration=   169
   0.01898876  0.82217845  0.05522191
   0.92159709  0.82986052  0.17096510
   0.04563002  0.95432462  0.98464576
Direct configuration=   170
   0.01950972  0.82113237  0.05573672
   0.91587640  0.82575067  0.16986074
   0.04355708  0.95698399  0.98368962
Direct configuration=   171
   0.02003907  0.82008300  0.05624320
   0.91026331  0.82190666  0.16854518
   0.04124168  0.95943345  0.98307785
Direct configuration=   172
   0.02056743  0.81904693  0.05674581
   0.90495361  0.81833094  0.16681532
   0.03863898  0.96140300  0.98294230
Direct configuration=   173
   0.02108489  0.81803615  0.05724866
   0.90011819  0.81502517  0.16452475
   0.03573432  0.96269876  0.98336496
Direct configuration=   174
   0.02158251  0.81705858  0.05775492
   0.89589164  0.81198689  0.16158438
   0.03253797  0.96319579  0.98438307
Direct configuration=   175
   0.02205227  0.81611852  0.05826709
   0.89236970  0.80920650  0.15795753
   0.02908016  0.96283402  0.98599407
Direct configuration=   176
   0.02248810  0.81521723  0.05878689
   0.88960693  0.80666512  0.15365523
   0.02540703  0.96161439  0.98815920
Direct configuration=   177
   0.02288597  0.81435244  0.05931560
   0.88761105  0.80433127  0.14873099
   0.02157564  0.95960357  0.99080497
Direct configuration=   178
   0.02324446  0.81351839  0.05985428
   0.88633966  0.80215952  0.14327533
   0.01764980  0.95693576  0.99382445
Direct configuration=   179
   0.02356556  0.81270611  0.06040381
   0.88569487  0.80008826  0.13741335
   0.01369531  0.95381926  0.99707775
Direct configuration=   180
   0.02385522  0.81190280  0.06096516
   0.88551891  0.79803792  0.13130020
   0.00977477  0.95053665  0.00039506
Direct configuration=   181
   0.02412381  0.81109357  0.06153912
   0.88559432  0.79591028  0.12510880
   0.00594018  0.94742680  0.00358986
Direct configuration=   182
   0.02438533  0.81026339  0.06212604
   0.88565857  0.79359163  0.11901386
   0.00222939  0.94484376  0.00648200
Direct configuration=   183
   0.02465511  0.80940106  0.06272528
   0.88544041  0.79096120  0.11316630
   0.99867054  0.94308730  0.00893028
Direct configuration=   184
   0.02494528  0.80850322  0.06333484
   0.88471622  0.78790558  0.10766662
   0.99529274  0.94232658  0.01086474
Direct configuration=   185
   0.02526042  0.80757555  0.06395157
   0.88337149  0.78433831  0.10255072
   0.99213750  0.94255532  0.01230006
Direct configuration=   186
   0.02559463  0.80663149  0.06457167
   0.88144103  0.78021847  0.09779095
   0.98926318  0.94359920  0.01332564
Direct configuration=   187
   0.02593259  0.80568808  0.06519100
   0.87910118  0.77555892  0.09331872
   0.98673902  0.94517584  0.01407500
Direct configuration=   188
   0.02625316  0.80476126  0.06580567
   0.87662331  0.77042151  0.08905205
   0.98463125  0.94696327  0.01469369
Direct configuration=   189
   0.02653399  0.80386411  0.06641181
   0.87431070  0.76490463  0.08491924
   0.98299297  0.94865755  0.01531454
Direct configuration=   190
   0.02675527  0.80300496  0.06700591
   0.87245000  0.75912736  0.08086842
   0.98185845  0.95000356  0.01604517
Direct configuration=   191
   0.02690104  0.80218815  0.06758482
   0.87127917  0.75321610  0.07687054
   0.98124064  0.95080713  0.01696496
Direct configuration=   192
   0.02696088  0.80141406  0.06814596
   0.87097565  0.74729200  0.07291585
   0.98113294  0.95093740  0.01812538
Direct configuration=   193
   0.02692892  0.80068024  0.06868746
   0.87165658  0.74146834  0.06900745
   0.98150990  0.95032374  0.01955232
Direct configuration=   194
   0.02680427  0.79998099  0.06920855
   0.87337929  0.73584189  0.06515737
   0.98232772  0.94895857  0.02124734
Direct configuration=   195
   0.02659083  0.79930815  0.06970958
   0.87614617  0.73049143  0.06138120
   0.98352458  0.94689691  0.02318906
Direct configuration=   196
   0.02629661  0.79865054  0.07019240
   0.87990682  0.72547335  0.05769411
   0.98501992  0.94426259  0.02533231
Direct configuration=   197
   0.02593426  0.79799381  0.07066082
   0.88455829  0.72081512  0.05410635
   0.98671391  0.94125347  0.02760836
Direct configuration=   198
   0.02552090  0.79732152  0.07112052
   0.88994435  0.71650998  0.05061728
   0.98848917  0.93814230  0.02992640
Direct configuration=   199
   0.02507754  0.79661552  0.07157918
   0.89585754  0.71251151  0.04721056
   0.99021728  0.93526349  0.03217886
Direct configuration=   200
   0.02462803  0.79585936  0.07204618
   0.90204267  0.70872691  0.04384873
   0.99176994  0.93297298  0.03425383
Direct configuration=   201
   0.02419678  0.79504234  0.07253144
   0.90821980  0.70502296  0.04046967
   0.99303853  0.93157323  0.03605591
Direct configuration=   202
   0.02380541  0.79416425  0.07304382
   0.91411449  0.70124392  0.03698787
   0.99395113  0.93122634  0.03752756
Direct configuration=   203
   0.02346932  0.79323596  0.07358991
   0.91950909  0.69725010  0.03330769
   0.99448119  0.93189690  0.03865969
Direct configuration=   204
   0.02319480  0.79227662  0.07417261
   0.92428792  0.69296833  0.02934787
   0.99464284  0.93335574  0.03948611
Direct configuration=   205
   0.02297894  0.79130643  0.07479101
   0.92845716  0.68842734  0.02506607
   0.99447561  0.93525068  0.04006396
Direct configuration=   206
   0.02281156  0.79034095  0.07544052
   0.93212971  0.68376742  0.02047492
   0.99402915  0.93719305  0.04045397
Direct configuration=   207
   0.02267875  0.78938855  0.07611380
   0.93547889  0.67920885  0.01564046
   0.99335289  0.93882843  0.04070700
Direct configuration=   208
   0.02256620  0.78845122  0.07680216
   0.93868838  0.67500181  0.01066619
   0.99249132  0.93987369  0.04085913
Direct configuration=   209
   0.02246147  0.78752638  0.07749671
   0.94191857  0.67138358  0.00567276
   0.99148252  0.94012944  0.04093185
Direct configuration=   210
   0.02235496  0.78660914  0.07818930
   0.94529134  0.66855030  0.00078002